
 displacements (vx,vy,vz) for set NOUT and time  0.1000000E+00

         1  1.931236E-09  1.146354E-08  0.000000E+00

 displacements (vx,vy,vz) for set NOUT and time  0.2000000E+00

         1  3.862472E-09  2.292709E-08  0.000000E+00

 displacements (vx,vy,vz) for set NOUT and time  0.3000000E+00

         1  5.793709E-09  3.439065E-08  0.000000E+00

 displacements (vx,vy,vz) for set NOUT and time  0.4000000E+00

         1  7.724946E-09  4.585422E-08  0.000000E+00

 displacements (vx,vy,vz) for set NOUT and time  0.5000000E+00

         1  9.656184E-09  5.731780E-08  0.000000E+00

 displacements (vx,vy,vz) for set NOUT and time  0.6000000E+00

         1  1.158742E-08  6.878138E-08  0.000000E+00

 displacements (vx,vy,vz) for set NOUT and time  0.7000000E+00

         1  1.351866E-08  8.024498E-08  0.000000E+00

 displacements (vx,vy,vz) for set NOUT and time  0.8000000E+00

         1  1.544990E-08  9.170859E-08  0.000000E+00

 displacements (vx,vy,vz) for set NOUT and time  0.9000000E+00

         1  1.738114E-08  1.031722E-07  0.000000E+00

 displacements (vx,vy,vz) for set NOUT and time  0.1000000E+01

         1  1.931238E-08  1.146358E-07  0.000000E+00
