    1C
    1UUSER                                                              
    1UDATE              19.january.2014                                 
    1UTIME              23:50:23                                        
    1UHOST                                                              
    1UPGM               CalculiX                                        
    1UDIR                                                               
    1UDBN                                                               
    2C                           496                                     1
 -1         1 1.00000E-02 0.00000E+00 6.12303E-19
 -1         2 1.16667E-02 0.00000E+00 7.14354E-19
 -1         3 1.33333E-02 0.00000E+00 8.16404E-19
 -1         4 1.50000E-02 0.00000E+00 9.18455E-19
 -1         5 1.66667E-02 0.00000E+00 1.02051E-18
 -1         6 1.83333E-02 0.00000E+00 1.12256E-18
 -1         7 2.00000E-02 0.00000E+00 1.22461E-18
 -1         8 2.16667E-02 0.00000E+00 1.32666E-18
 -1         9 2.33333E-02 0.00000E+00 1.42871E-18
 -1        10 2.50000E-02 0.00000E+00 1.53076E-18
 -1        11 2.66667E-02 0.00000E+00 1.63281E-18
 -1        12 2.83333E-02 0.00000E+00 1.73486E-18
 -1        13 3.00000E-02 0.00000E+00 1.83691E-18
 -1        14 3.16667E-02 0.00000E+00 1.93896E-18
 -1        15 3.33333E-02 0.00000E+00 2.04101E-18
 -1        16 3.50000E-02 0.00000E+00 2.14306E-18
 -1        17 3.66667E-02 0.00000E+00 2.24511E-18
 -1        18 3.83333E-02 0.00000E+00 2.34716E-18
 -1        19 4.00000E-02 0.00000E+00 2.44921E-18
 -1        20 4.16667E-02 0.00000E+00 2.55126E-18
 -1        21 4.33333E-02 0.00000E+00 2.65331E-18
 -1        22 4.50000E-02 0.00000E+00 2.75536E-18
 -1        23 4.66667E-02 0.00000E+00 2.85741E-18
 -1        24 4.83333E-02 0.00000E+00 2.95947E-18
 -1        25 5.00000E-02 0.00000E+00 3.06152E-18
 -1        26 5.16667E-02 0.00000E+00 3.16357E-18
 -1        27 5.33333E-02 0.00000E+00 3.26562E-18
 -1        28 5.50000E-02 0.00000E+00 3.36767E-18
 -1        29 5.66667E-02 0.00000E+00 3.46972E-18
 -1        30 5.83333E-02 0.00000E+00 3.57177E-18
 -1        31 6.00000E-02 0.00000E+00 3.67382E-18
 -1       101 1.00000E-02 5.00000E-03 6.12303E-19
 -1       102 1.16667E-02 5.00000E-03 7.14354E-19
 -1       103 1.33333E-02 5.00000E-03 8.16404E-19
 -1       104 1.50000E-02 5.00000E-03 9.18455E-19
 -1       105 1.66667E-02 5.00000E-03 1.02051E-18
 -1       106 1.83333E-02 5.00000E-03 1.12256E-18
 -1       107 2.00000E-02 5.00000E-03 1.22461E-18
 -1       108 2.16667E-02 5.00000E-03 1.32666E-18
 -1       109 2.33333E-02 5.00000E-03 1.42871E-18
 -1       110 2.50000E-02 5.00000E-03 1.53076E-18
 -1       111 2.66667E-02 5.00000E-03 1.63281E-18
 -1       112 2.83333E-02 5.00000E-03 1.73486E-18
 -1       113 3.00000E-02 5.00000E-03 1.83691E-18
 -1       114 3.16667E-02 5.00000E-03 1.93896E-18
 -1       115 3.33333E-02 5.00000E-03 2.04101E-18
 -1       116 3.50000E-02 5.00000E-03 2.14306E-18
 -1       117 3.66667E-02 5.00000E-03 2.24511E-18
 -1       118 3.83333E-02 5.00000E-03 2.34716E-18
 -1       119 4.00000E-02 5.00000E-03 2.44921E-18
 -1       120 4.16667E-02 5.00000E-03 2.55126E-18
 -1       121 4.33333E-02 5.00000E-03 2.65331E-18
 -1       122 4.50000E-02 5.00000E-03 2.75536E-18
 -1       123 4.66667E-02 5.00000E-03 2.85741E-18
 -1       124 4.83333E-02 5.00000E-03 2.95947E-18
 -1       125 5.00000E-02 5.00000E-03 3.06152E-18
 -1       126 5.16667E-02 5.00000E-03 3.16357E-18
 -1       127 5.33333E-02 5.00000E-03 3.26562E-18
 -1       128 5.50000E-02 5.00000E-03 3.36767E-18
 -1       129 5.66667E-02 5.00000E-03 3.46972E-18
 -1       130 5.83333E-02 5.00000E-03 3.57177E-18
 -1       131 6.00000E-02 5.00000E-03 3.67382E-18
 -1       201 1.00000E-02 6.78571E-03 6.12303E-19
 -1       202 1.16345E-02 6.78004E-03 7.12383E-19
 -1       203 1.32690E-02 6.77436E-03 8.12463E-19
 -1       204 1.49035E-02 6.76869E-03 9.12544E-19
 -1       205 1.65379E-02 6.76302E-03 1.01262E-18
 -1       206 1.81724E-02 6.75734E-03 1.11270E-18
 -1       207 1.98069E-02 6.75167E-03 1.21278E-18
 -1       208 2.14414E-02 6.74599E-03 1.31286E-18
 -1       209 2.30759E-02 6.74032E-03 1.41294E-18
 -1       210 2.47104E-02 6.73464E-03 1.51302E-18
 -1       211 2.63449E-02 6.72897E-03 1.61310E-18
 -1       212 2.79794E-02 6.72329E-03 1.71318E-18
 -1       213 2.96138E-02 6.71762E-03 1.81326E-18
 -1       214 3.12483E-02 6.71194E-03 1.91335E-18
 -1       215 3.28828E-02 6.70627E-03 2.01343E-18
 -1       216 3.45173E-02 6.70059E-03 2.11351E-18
 -1       217 3.61518E-02 6.69492E-03 2.21359E-18
 -1       218 3.77863E-02 6.68924E-03 2.31367E-18
 -1       219 3.94208E-02 6.68357E-03 2.41375E-18
 -1       220 4.10553E-02 6.67789E-03 2.51383E-18
 -1       221 4.26897E-02 6.67222E-03 2.61391E-18
 -1       222 4.43242E-02 6.66655E-03 2.71399E-18
 -1       223 4.59587E-02 6.66087E-03 2.81407E-18
 -1       224 4.75932E-02 6.65520E-03 2.91415E-18
 -1       225 4.92277E-02 6.64952E-03 3.01423E-18
 -1       226 5.08622E-02 6.64385E-03 3.11431E-18
 -1       227 5.24967E-02 6.63817E-03 3.21439E-18
 -1       228 5.41311E-02 6.63250E-03 3.31447E-18
 -1       229 5.57656E-02 6.62682E-03 3.41455E-18
 -1       230 5.74001E-02 6.62115E-03 3.51463E-18
 -1       231 5.90346E-02 6.61547E-03 3.61471E-18
 -1       301 1.00000E-02 8.57143E-03 6.12303E-19
 -1       302 1.16045E-02 8.56132E-03 7.10546E-19
 -1       303 1.32090E-02 8.55121E-03 8.08789E-19
 -1       304 1.48134E-02 8.54110E-03 9.07032E-19
 -1       305 1.64179E-02 8.53099E-03 1.00527E-18
 -1       306 1.80224E-02 8.52089E-03 1.10352E-18
 -1       307 1.96269E-02 8.51078E-03 1.20176E-18
 -1       308 2.12314E-02 8.50067E-03 1.30000E-18
 -1       309 2.28358E-02 8.49056E-03 1.39825E-18
 -1       310 2.44403E-02 8.48045E-03 1.49649E-18
 -1       311 2.60448E-02 8.47034E-03 1.59473E-18
 -1       312 2.76493E-02 8.46023E-03 1.69297E-18
 -1       313 2.92538E-02 8.45012E-03 1.79122E-18
 -1       314 3.08582E-02 8.44002E-03 1.88946E-18
 -1       315 3.24627E-02 8.42991E-03 1.98770E-18
 -1       316 3.40672E-02 8.41980E-03 2.08595E-18
 -1       317 3.56717E-02 8.40969E-03 2.18419E-18
 -1       318 3.72762E-02 8.39958E-03 2.28243E-18
 -1       319 3.88806E-02 8.38947E-03 2.38067E-18
 -1       320 4.04851E-02 8.37936E-03 2.47892E-18
 -1       321 4.20896E-02 8.36926E-03 2.57716E-18
 -1       322 4.36941E-02 8.35915E-03 2.67540E-18
 -1       323 4.52986E-02 8.34904E-03 2.77365E-18
 -1       324 4.69031E-02 8.33893E-03 2.87189E-18
 -1       325 4.85075E-02 8.32882E-03 2.97013E-18
 -1       326 5.01120E-02 8.31871E-03 3.06837E-18
 -1       327 5.17165E-02 8.30860E-03 3.16662E-18
 -1       328 5.33210E-02 8.29849E-03 3.26486E-18
 -1       329 5.49255E-02 8.28839E-03 3.36310E-18
 -1       330 5.65299E-02 8.27828E-03 3.46135E-18
 -1       331 5.81344E-02 8.26817E-03 3.55959E-18
 -1       401 1.00000E-02 1.03571E-02 6.12303E-19
 -1       402 1.15767E-02 1.03438E-02 7.08845E-19
 -1       403 1.31534E-02 1.03304E-02 8.05386E-19
 -1       404 1.47301E-02 1.03170E-02 9.01928E-19
 -1       405 1.63068E-02 1.03036E-02 9.98469E-19
 -1       406 1.78835E-02 1.02902E-02 1.09501E-18
 -1       407 1.94602E-02 1.02768E-02 1.19155E-18
 -1       408 2.10369E-02 1.02634E-02 1.28809E-18
 -1       409 2.26136E-02 1.02500E-02 1.38464E-18
 -1       410 2.41903E-02 1.02366E-02 1.48118E-18
 -1       411 2.57670E-02 1.02232E-02 1.57772E-18
 -1       412 2.73437E-02 1.02099E-02 1.67426E-18
 -1       413 2.89203E-02 1.01965E-02 1.77080E-18
 -1       414 3.04970E-02 1.01831E-02 1.86734E-18
 -1       415 3.20737E-02 1.01697E-02 1.96388E-18
 -1       416 3.36504E-02 1.01563E-02 2.06043E-18
 -1       417 3.52271E-02 1.01429E-02 2.15697E-18
 -1       418 3.68038E-02 1.01295E-02 2.25351E-18
 -1       419 3.83805E-02 1.01161E-02 2.35005E-18
 -1       420 3.99572E-02 1.01027E-02 2.44659E-18
 -1       421 4.15339E-02 1.00894E-02 2.54313E-18
 -1       422 4.31106E-02 1.00760E-02 2.63968E-18
 -1       423 4.46873E-02 1.00626E-02 2.73622E-18
 -1       424 4.62640E-02 1.00492E-02 2.83276E-18
 -1       425 4.78407E-02 1.00358E-02 2.92930E-18
 -1       426 4.94174E-02 1.00224E-02 3.02584E-18
 -1       427 5.09941E-02 1.00090E-02 3.12238E-18
 -1       428 5.25708E-02 9.99563E-03 3.21893E-18
 -1       429 5.41475E-02 9.98224E-03 3.31547E-18
 -1       430 5.57242E-02 9.96885E-03 3.41201E-18
 -1       431 5.73009E-02 9.95546E-03 3.50855E-18
 -1       501 1.00000E-02 1.21429E-02 6.12303E-19
 -1       502 1.15512E-02 1.21273E-02 7.07282E-19
 -1       503 1.31024E-02 1.21116E-02 8.02261E-19
 -1       504 1.46535E-02 1.20960E-02 8.97240E-19
 -1       505 1.62047E-02 1.20804E-02 9.92219E-19
 -1       506 1.77559E-02 1.20648E-02 1.08720E-18
 -1       507 1.93071E-02 1.20492E-02 1.18218E-18
 -1       508 2.08582E-02 1.20336E-02 1.27716E-18
 -1       509 2.24094E-02 1.20180E-02 1.37214E-18
 -1       510 2.39606E-02 1.20024E-02 1.46711E-18
 -1       511 2.55118E-02 1.19868E-02 1.56209E-18
 -1       512 2.70629E-02 1.19712E-02 1.65707E-18
 -1       513 2.86141E-02 1.19556E-02 1.75205E-18
 -1       514 3.01653E-02 1.19400E-02 1.84703E-18
 -1       515 3.17165E-02 1.19244E-02 1.94201E-18
 -1       516 3.32676E-02 1.19088E-02 2.03699E-18
 -1       517 3.48188E-02 1.18931E-02 2.13197E-18
 -1       518 3.63700E-02 1.18775E-02 2.22695E-18
 -1       519 3.79212E-02 1.18619E-02 2.32193E-18
 -1       520 3.94723E-02 1.18463E-02 2.41690E-18
 -1       521 4.10235E-02 1.18307E-02 2.51188E-18
 -1       522 4.25747E-02 1.18151E-02 2.60686E-18
 -1       523 4.41259E-02 1.17995E-02 2.70184E-18
 -1       524 4.56771E-02 1.17839E-02 2.79682E-18
 -1       525 4.72282E-02 1.17683E-02 2.89180E-18
 -1       526 4.87794E-02 1.17527E-02 2.98678E-18
 -1       527 5.03306E-02 1.17371E-02 3.08176E-18
 -1       528 5.18818E-02 1.17215E-02 3.17674E-18
 -1       529 5.34329E-02 1.17059E-02 3.27172E-18
 -1       530 5.49841E-02 1.16903E-02 3.36669E-18
 -1       531 5.65353E-02 1.16747E-02 3.46167E-18
 -1       601 1.00000E-02 1.39286E-02 6.12303E-19
 -1       602 1.15280E-02 1.39117E-02 7.05861E-19
 -1       603 1.30559E-02 1.38949E-02 7.99419E-19
 -1       604 1.45839E-02 1.38780E-02 8.92976E-19
 -1       605 1.61119E-02 1.38612E-02 9.86534E-19
 -1       606 1.76398E-02 1.38443E-02 1.08009E-18
 -1       607 1.91678E-02 1.38275E-02 1.17365E-18
 -1       608 2.06957E-02 1.38106E-02 1.26721E-18
 -1       609 2.22237E-02 1.37938E-02 1.36076E-18
 -1       610 2.37517E-02 1.37769E-02 1.45432E-18
 -1       611 2.52796E-02 1.37601E-02 1.54788E-18
 -1       612 2.68076E-02 1.37432E-02 1.64144E-18
 -1       613 2.83356E-02 1.37263E-02 1.73500E-18
 -1       614 2.98635E-02 1.37095E-02 1.82855E-18
 -1       615 3.13915E-02 1.36926E-02 1.92211E-18
 -1       616 3.29194E-02 1.36758E-02 2.01567E-18
 -1       617 3.44474E-02 1.36589E-02 2.10923E-18
 -1       618 3.59754E-02 1.36421E-02 2.20278E-18
 -1       619 3.75033E-02 1.36252E-02 2.29634E-18
 -1       620 3.90313E-02 1.36084E-02 2.38990E-18
 -1       621 4.05593E-02 1.35915E-02 2.48346E-18
 -1       622 4.20872E-02 1.35747E-02 2.57701E-18
 -1       623 4.36152E-02 1.35578E-02 2.67057E-18
 -1       624 4.51431E-02 1.35410E-02 2.76413E-18
 -1       625 4.66711E-02 1.35241E-02 2.85769E-18
 -1       626 4.81991E-02 1.35073E-02 2.95124E-18
 -1       627 4.97270E-02 1.34904E-02 3.04480E-18
 -1       628 5.12550E-02 1.34736E-02 3.13836E-18
 -1       629 5.27830E-02 1.34567E-02 3.23192E-18
 -1       630 5.43109E-02 1.34399E-02 3.32548E-18
 -1       631 5.58389E-02 1.34230E-02 3.41903E-18
 -1       701 1.00000E-02 1.57143E-02 6.12303E-19
 -1       702 1.15071E-02 1.56971E-02 7.04583E-19
 -1       703 1.30142E-02 1.56799E-02 7.96863E-19
 -1       704 1.45213E-02 1.56626E-02 8.89143E-19
 -1       705 1.60284E-02 1.56454E-02 9.81422E-19
 -1       706 1.75355E-02 1.56282E-02 1.07370E-18
 -1       707 1.90426E-02 1.56110E-02 1.16598E-18
 -1       708 2.05497E-02 1.55938E-02 1.25826E-18
 -1       709 2.20567E-02 1.55765E-02 1.35054E-18
 -1       710 2.35638E-02 1.55593E-02 1.44282E-18
 -1       711 2.50709E-02 1.55421E-02 1.53510E-18
 -1       712 2.65780E-02 1.55249E-02 1.62738E-18
 -1       713 2.80851E-02 1.55077E-02 1.71966E-18
 -1       714 2.95922E-02 1.54905E-02 1.81194E-18
 -1       715 3.10993E-02 1.54732E-02 1.90422E-18
 -1       716 3.26064E-02 1.54560E-02 1.99650E-18
 -1       717 3.41135E-02 1.54388E-02 2.08878E-18
 -1       718 3.56206E-02 1.54216E-02 2.18106E-18
 -1       719 3.71277E-02 1.54044E-02 2.27334E-18
 -1       720 3.86348E-02 1.53872E-02 2.36562E-18
 -1       721 4.01419E-02 1.53699E-02 2.45790E-18
 -1       722 4.16490E-02 1.53527E-02 2.55018E-18
 -1       723 4.31561E-02 1.53355E-02 2.64246E-18
 -1       724 4.46631E-02 1.53183E-02 2.73474E-18
 -1       725 4.61702E-02 1.53011E-02 2.82702E-18
 -1       726 4.76773E-02 1.52839E-02 2.91930E-18
 -1       727 4.91844E-02 1.52666E-02 3.01158E-18
 -1       728 5.06915E-02 1.52494E-02 3.10386E-18
 -1       729 5.21986E-02 1.52322E-02 3.19614E-18
 -1       730 5.37057E-02 1.52150E-02 3.28842E-18
 -1       731 5.52128E-02 1.51978E-02 3.38070E-18
 -1       801 1.00000E-02 1.75000E-02 6.12303E-19
 -1       802 1.14886E-02 1.74832E-02 7.03451E-19
 -1       803 1.29772E-02 1.74664E-02 7.94598E-19
 -1       804 1.44658E-02 1.74496E-02 8.85745E-19
 -1       805 1.59544E-02 1.74328E-02 9.76893E-19
 -1       806 1.74430E-02 1.74160E-02 1.06804E-18
 -1       807 1.89316E-02 1.73992E-02 1.15919E-18
 -1       808 2.04202E-02 1.73824E-02 1.25034E-18
 -1       809 2.19088E-02 1.73656E-02 1.34148E-18
 -1       810 2.33974E-02 1.73488E-02 1.43263E-18
 -1       811 2.48860E-02 1.73320E-02 1.52378E-18
 -1       812 2.63746E-02 1.73152E-02 1.61492E-18
 -1       813 2.78632E-02 1.72984E-02 1.70607E-18
 -1       814 2.93518E-02 1.72816E-02 1.79722E-18
 -1       815 3.08404E-02 1.72648E-02 1.88837E-18
 -1       816 3.23290E-02 1.72480E-02 1.97951E-18
 -1       817 3.38176E-02 1.72312E-02 2.07066E-18
 -1       818 3.53062E-02 1.72144E-02 2.16181E-18
 -1       819 3.67948E-02 1.71976E-02 2.25296E-18
 -1       820 3.82834E-02 1.71809E-02 2.34410E-18
 -1       821 3.97720E-02 1.71641E-02 2.43525E-18
 -1       822 4.12606E-02 1.71473E-02 2.52640E-18
 -1       823 4.27492E-02 1.71305E-02 2.61755E-18
 -1       824 4.42378E-02 1.71137E-02 2.70869E-18
 -1       825 4.57264E-02 1.70969E-02 2.79984E-18
 -1       826 4.72150E-02 1.70801E-02 2.89099E-18
 -1       827 4.87036E-02 1.70633E-02 2.98214E-18
 -1       828 5.01922E-02 1.70465E-02 3.07328E-18
 -1       829 5.16808E-02 1.70297E-02 3.16443E-18
 -1       830 5.31694E-02 1.70129E-02 3.25558E-18
 -1       831 5.46580E-02 1.69961E-02 3.34673E-18
 -1       901 1.00000E-02 1.92857E-02 6.12303E-19
 -1       902 1.14725E-02 1.92700E-02 7.02466E-19
 -1       903 1.29450E-02 1.92543E-02 7.92628E-19
 -1       904 1.44175E-02 1.92387E-02 8.82790E-19
 -1       905 1.58900E-02 1.92230E-02 9.72953E-19
 -1       906 1.73626E-02 1.92073E-02 1.06312E-18
 -1       907 1.88351E-02 1.91916E-02 1.15328E-18
 -1       908 2.03076E-02 1.91759E-02 1.24344E-18
 -1       909 2.17801E-02 1.91602E-02 1.33360E-18
 -1       910 2.32526E-02 1.91445E-02 1.42376E-18
 -1       911 2.47251E-02 1.91288E-02 1.51393E-18
 -1       912 2.61976E-02 1.91132E-02 1.60409E-18
 -1       913 2.76701E-02 1.90975E-02 1.69425E-18
 -1       914 2.91427E-02 1.90818E-02 1.78441E-18
 -1       915 3.06152E-02 1.90661E-02 1.87458E-18
 -1       916 3.20877E-02 1.90504E-02 1.96474E-18
 -1       917 3.35602E-02 1.90347E-02 2.05490E-18
 -1       918 3.50327E-02 1.90190E-02 2.14506E-18
 -1       919 3.65052E-02 1.90033E-02 2.23523E-18
 -1       920 3.79777E-02 1.89877E-02 2.32539E-18
 -1       921 3.94502E-02 1.89720E-02 2.41555E-18
 -1       922 4.09228E-02 1.89563E-02 2.50571E-18
 -1       923 4.23953E-02 1.89406E-02 2.59588E-18
 -1       924 4.38678E-02 1.89249E-02 2.68604E-18
 -1       925 4.53403E-02 1.89092E-02 2.77620E-18
 -1       926 4.68128E-02 1.88935E-02 2.86636E-18
 -1       927 4.82853E-02 1.88778E-02 2.95653E-18
 -1       928 4.97578E-02 1.88622E-02 3.04669E-18
 -1       929 5.12303E-02 1.88465E-02 3.13685E-18
 -1       930 5.27028E-02 1.88308E-02 3.22701E-18
 -1       931 5.41754E-02 1.88151E-02 3.31717E-18
 -1      1001 1.00000E-02 2.10714E-02 6.12303E-19
 -1      1002 1.14589E-02 2.10574E-02 7.01629E-19
 -1      1003 1.29177E-02 2.10435E-02 7.90956E-19
 -1      1004 1.43766E-02 2.10295E-02 8.80282E-19
 -1      1005 1.58354E-02 2.10155E-02 9.69608E-19
 -1      1006 1.72943E-02 2.10015E-02 1.05893E-18
 -1      1007 1.87531E-02 2.09875E-02 1.14826E-18
 -1      1008 2.02120E-02 2.09735E-02 1.23759E-18
 -1      1009 2.16708E-02 2.09596E-02 1.32691E-18
 -1      1010 2.31297E-02 2.09456E-02 1.41624E-18
 -1      1011 2.45886E-02 2.09316E-02 1.50557E-18
 -1      1012 2.60474E-02 2.09176E-02 1.59489E-18
 -1      1013 2.75063E-02 2.09036E-02 1.68422E-18
 -1      1014 2.89651E-02 2.08896E-02 1.77354E-18
 -1      1015 3.04240E-02 2.08757E-02 1.86287E-18
 -1      1016 3.18828E-02 2.08617E-02 1.95220E-18
 -1      1017 3.33417E-02 2.08477E-02 2.04152E-18
 -1      1018 3.48005E-02 2.08337E-02 2.13085E-18
 -1      1019 3.62594E-02 2.08197E-02 2.22017E-18
 -1      1020 3.77183E-02 2.08057E-02 2.30950E-18
 -1      1021 3.91771E-02 2.07918E-02 2.39883E-18
 -1      1022 4.06360E-02 2.07778E-02 2.48815E-18
 -1      1023 4.20948E-02 2.07638E-02 2.57748E-18
 -1      1024 4.35537E-02 2.07498E-02 2.66681E-18
 -1      1025 4.50125E-02 2.07358E-02 2.75613E-18
 -1      1026 4.64714E-02 2.07218E-02 2.84546E-18
 -1      1027 4.79302E-02 2.07078E-02 2.93478E-18
 -1      1028 4.93891E-02 2.06939E-02 3.02411E-18
 -1      1029 5.08480E-02 2.06799E-02 3.11344E-18
 -1      1030 5.23068E-02 2.06659E-02 3.20276E-18
 -1      1031 5.37657E-02 2.06519E-02 3.29209E-18
 -1      1101 1.00000E-02 2.28571E-02 6.12303E-19
 -1      1102 1.14477E-02 2.28454E-02 7.00943E-19
 -1      1103 1.28953E-02 2.28336E-02 7.89584E-19
 -1      1104 1.43430E-02 2.28218E-02 8.78224E-19
 -1      1105 1.57906E-02 2.28100E-02 9.66864E-19
 -1      1106 1.72383E-02 2.27982E-02 1.05550E-18
 -1      1107 1.86859E-02 2.27864E-02 1.14414E-18
 -1      1108 2.01336E-02 2.27747E-02 1.23278E-18
 -1      1109 2.15812E-02 2.27629E-02 1.32143E-18
 -1      1110 2.30289E-02 2.27511E-02 1.41007E-18
 -1      1111 2.44765E-02 2.27393E-02 1.49871E-18
 -1      1112 2.59242E-02 2.27275E-02 1.58735E-18
 -1      1113 2.73718E-02 2.27157E-02 1.67599E-18
 -1      1114 2.88195E-02 2.27039E-02 1.76463E-18
 -1      1115 3.02671E-02 2.26922E-02 1.85327E-18
 -1      1116 3.17148E-02 2.26804E-02 1.94191E-18
 -1      1117 3.31624E-02 2.26686E-02 2.03055E-18
 -1      1118 3.46101E-02 2.26568E-02 2.11919E-18
 -1      1119 3.60577E-02 2.26450E-02 2.20783E-18
 -1      1120 3.75054E-02 2.26332E-02 2.29647E-18
 -1      1121 3.89531E-02 2.26215E-02 2.38511E-18
 -1      1122 4.04007E-02 2.26097E-02 2.47375E-18
 -1      1123 4.18484E-02 2.25979E-02 2.56239E-18
 -1      1124 4.32960E-02 2.25861E-02 2.65103E-18
 -1      1125 4.47437E-02 2.25743E-02 2.73967E-18
 -1      1126 4.61913E-02 2.25625E-02 2.82831E-18
 -1      1127 4.76390E-02 2.25508E-02 2.91695E-18
 -1      1128 4.90866E-02 2.25390E-02 3.00559E-18
 -1      1129 5.05343E-02 2.25272E-02 3.09423E-18
 -1      1130 5.19819E-02 2.25154E-02 3.18287E-18
 -1      1131 5.34296E-02 2.25036E-02 3.27151E-18
 -1      1201 1.00000E-02 2.46429E-02 6.12303E-19
 -1      1202 1.14389E-02 2.46337E-02 7.00409E-19
 -1      1203 1.28778E-02 2.46245E-02 7.88514E-19
 -1      1204 1.43168E-02 2.46153E-02 8.76620E-19
 -1      1205 1.57557E-02 2.46061E-02 9.64725E-19
 -1      1206 1.71946E-02 2.45969E-02 1.05283E-18
 -1      1207 1.86335E-02 2.45877E-02 1.14094E-18
 -1      1208 2.00724E-02 2.45785E-02 1.22904E-18
 -1      1209 2.15114E-02 2.45694E-02 1.31715E-18
 -1      1210 2.29503E-02 2.45602E-02 1.40525E-18
 -1      1211 2.43892E-02 2.45510E-02 1.49336E-18
 -1      1212 2.58281E-02 2.45418E-02 1.58146E-18
 -1      1213 2.72670E-02 2.45326E-02 1.66957E-18
 -1      1214 2.87060E-02 2.45234E-02 1.75768E-18
 -1      1215 3.01449E-02 2.45142E-02 1.84578E-18
 -1      1216 3.15838E-02 2.45051E-02 1.93389E-18
 -1      1217 3.30227E-02 2.44959E-02 2.02199E-18
 -1      1218 3.44617E-02 2.44867E-02 2.11010E-18
 -1      1219 3.59006E-02 2.44775E-02 2.19820E-18
 -1      1220 3.73395E-02 2.44683E-02 2.28631E-18
 -1      1221 3.87784E-02 2.44591E-02 2.37441E-18
 -1      1222 4.02173E-02 2.44499E-02 2.46252E-18
 -1      1223 4.16563E-02 2.44407E-02 2.55063E-18
 -1      1224 4.30952E-02 2.44316E-02 2.63873E-18
 -1      1225 4.45341E-02 2.44224E-02 2.72684E-18
 -1      1226 4.59730E-02 2.44132E-02 2.81494E-18
 -1      1227 4.74119E-02 2.44040E-02 2.90305E-18
 -1      1228 4.88509E-02 2.43948E-02 2.99115E-18
 -1      1229 5.02898E-02 2.43856E-02 3.07926E-18
 -1      1230 5.17287E-02 2.43764E-02 3.16736E-18
 -1      1231 5.31676E-02 2.43672E-02 3.25547E-18
 -1      1301 1.00000E-02 2.64286E-02 6.12303E-19
 -1      1302 1.14327E-02 2.64223E-02 7.00026E-19
 -1      1303 1.28653E-02 2.64160E-02 7.87749E-19
 -1      1304 1.42980E-02 2.64097E-02 8.75472E-19
 -1      1305 1.57307E-02 2.64034E-02 9.63195E-19
 -1      1306 1.71634E-02 2.63971E-02 1.05092E-18
 -1      1307 1.85960E-02 2.63908E-02 1.13864E-18
 -1      1308 2.00287E-02 2.63845E-02 1.22636E-18
 -1      1309 2.14614E-02 2.63782E-02 1.31409E-18
 -1      1310 2.28941E-02 2.63720E-02 1.40181E-18
 -1      1311 2.43267E-02 2.63657E-02 1.48953E-18
 -1      1312 2.57594E-02 2.63594E-02 1.57726E-18
 -1      1313 2.71921E-02 2.63531E-02 1.66498E-18
 -1      1314 2.86248E-02 2.63468E-02 1.75270E-18
 -1      1315 3.00574E-02 2.63405E-02 1.84043E-18
 -1      1316 3.14901E-02 2.63342E-02 1.92815E-18
 -1      1317 3.29228E-02 2.63279E-02 2.01587E-18
 -1      1318 3.43555E-02 2.63216E-02 2.10360E-18
 -1      1319 3.57881E-02 2.63153E-02 2.19132E-18
 -1      1320 3.72208E-02 2.63090E-02 2.27904E-18
 -1      1321 3.86535E-02 2.63028E-02 2.36676E-18
 -1      1322 4.00861E-02 2.62965E-02 2.45449E-18
 -1      1323 4.15188E-02 2.62902E-02 2.54221E-18
 -1      1324 4.29515E-02 2.62839E-02 2.62993E-18
 -1      1325 4.43842E-02 2.62776E-02 2.71766E-18
 -1      1326 4.58168E-02 2.62713E-02 2.80538E-18
 -1      1327 4.72495E-02 2.62650E-02 2.89310E-18
 -1      1328 4.86822E-02 2.62587E-02 2.98083E-18
 -1      1329 5.01149E-02 2.62524E-02 3.06855E-18
 -1      1330 5.15475E-02 2.62461E-02 3.15627E-18
 -1      1331 5.29802E-02 2.62398E-02 3.24399E-18
 -1      1401 1.00000E-02 2.82143E-02 6.12303E-19
 -1      1402 1.14289E-02 2.82111E-02 6.99797E-19
 -1      1403 1.28578E-02 2.82079E-02 7.87290E-19
 -1      1404 1.42868E-02 2.82047E-02 8.74783E-19
 -1      1405 1.57157E-02 2.82015E-02 9.62276E-19
 -1      1406 1.71446E-02 2.81983E-02 1.04977E-18
 -1      1407 1.85735E-02 2.81951E-02 1.13726E-18
 -1      1408 2.00024E-02 2.81919E-02 1.22476E-18
 -1      1409 2.14314E-02 2.81887E-02 1.31225E-18
 -1      1410 2.28603E-02 2.81855E-02 1.39974E-18
 -1      1411 2.42892E-02 2.81823E-02 1.48724E-18
 -1      1412 2.57181E-02 2.81791E-02 1.57473E-18
 -1      1413 2.71471E-02 2.81759E-02 1.66222E-18
 -1      1414 2.85760E-02 2.81727E-02 1.74972E-18
 -1      1415 3.00049E-02 2.81696E-02 1.83721E-18
 -1      1416 3.14338E-02 2.81664E-02 1.92470E-18
 -1      1417 3.28627E-02 2.81632E-02 2.01220E-18
 -1      1418 3.42917E-02 2.81600E-02 2.09969E-18
 -1      1419 3.57206E-02 2.81568E-02 2.18718E-18
 -1      1420 3.71495E-02 2.81536E-02 2.27468E-18
 -1      1421 3.85784E-02 2.81504E-02 2.36217E-18
 -1      1422 4.00073E-02 2.81472E-02 2.44966E-18
 -1      1423 4.14363E-02 2.81440E-02 2.53716E-18
 -1      1424 4.28652E-02 2.81408E-02 2.62465E-18
 -1      1425 4.42941E-02 2.81376E-02 2.71214E-18
 -1      1426 4.57230E-02 2.81344E-02 2.79964E-18
 -1      1427 4.71520E-02 2.81312E-02 2.88713E-18
 -1      1428 4.85809E-02 2.81280E-02 2.97462E-18
 -1      1429 5.00098E-02 2.81248E-02 3.06212E-18
 -1      1430 5.14387E-02 2.81216E-02 3.14961E-18
 -1      1431 5.28676E-02 2.81184E-02 3.23710E-18
 -1      1501 1.00000E-02 3.00000E-02 6.12303E-19
 -1      1502 1.14277E-02 3.00000E-02 6.99720E-19
 -1      1503 1.28553E-02 3.00000E-02 7.87137E-19
 -1      1504 1.42830E-02 3.00000E-02 8.74553E-19
 -1      1505 1.57107E-02 3.00000E-02 9.61970E-19
 -1      1506 1.71384E-02 3.00000E-02 1.04939E-18
 -1      1507 1.85660E-02 3.00000E-02 1.13680E-18
 -1      1508 1.99937E-02 3.00000E-02 1.22422E-18
 -1      1509 2.14214E-02 3.00000E-02 1.31164E-18
 -1      1510 2.28490E-02 3.00000E-02 1.39905E-18
 -1      1511 2.42767E-02 3.00000E-02 1.48647E-18
 -1      1512 2.57044E-02 3.00000E-02 1.57389E-18
 -1      1513 2.71320E-02 3.00000E-02 1.66130E-18
 -1      1514 2.85597E-02 3.00000E-02 1.74872E-18
 -1      1515 2.99874E-02 3.00000E-02 1.83614E-18
 -1      1516 3.14150E-02 3.00000E-02 1.92355E-18
 -1      1517 3.28427E-02 3.00000E-02 2.01097E-18
 -1      1518 3.42704E-02 3.00000E-02 2.09839E-18
 -1      1519 3.56981E-02 3.00000E-02 2.18580E-18
 -1      1520 3.71257E-02 3.00000E-02 2.27322E-18
 -1      1521 3.85534E-02 3.00000E-02 2.36064E-18
 -1      1522 3.99811E-02 3.00000E-02 2.44805E-18
 -1      1523 4.14087E-02 3.00000E-02 2.53547E-18
 -1      1524 4.28364E-02 3.00000E-02 2.62289E-18
 -1      1525 4.42641E-02 3.00000E-02 2.71030E-18
 -1      1526 4.56918E-02 3.00000E-02 2.79772E-18
 -1      1527 4.71194E-02 3.00000E-02 2.88514E-18
 -1      1528 4.85471E-02 3.00000E-02 2.97255E-18
 -1      1529 4.99748E-02 3.00000E-02 3.05997E-18
 -1      1530 5.14024E-02 3.00000E-02 3.14739E-18
 -1      1531 5.28301E-02 3.00000E-02 3.23480E-18
 -3
    3C                           450                                     1
 -1         1    9    0STEEL
 -2         1         2       102       101
 -1         2    9    0STEEL
 -2         2         3       103       102
 -1         3    9    0STEEL
 -2         3         4       104       103
 -1         4    9    0STEEL
 -2         4         5       105       104
 -1         5    9    0STEEL
 -2         5         6       106       105
 -1         6    9    0STEEL
 -2         6         7       107       106
 -1         7    9    0STEEL
 -2         7         8       108       107
 -1         8    9    0STEEL
 -2         8         9       109       108
 -1         9    9    0STEEL
 -2         9        10       110       109
 -1        10    9    0STEEL
 -2        10        11       111       110
 -1        11    9    0STEEL
 -2        11        12       112       111
 -1        12    9    0STEEL
 -2        12        13       113       112
 -1        13    9    0STEEL
 -2        13        14       114       113
 -1        14    9    0STEEL
 -2        14        15       115       114
 -1        15    9    0STEEL
 -2        15        16       116       115
 -1        16    9    0STEEL
 -2        16        17       117       116
 -1        17    9    0STEEL
 -2        17        18       118       117
 -1        18    9    0STEEL
 -2        18        19       119       118
 -1        19    9    0STEEL
 -2        19        20       120       119
 -1        20    9    0STEEL
 -2        20        21       121       120
 -1        21    9    0STEEL
 -2        21        22       122       121
 -1        22    9    0STEEL
 -2        22        23       123       122
 -1        23    9    0STEEL
 -2        23        24       124       123
 -1        24    9    0STEEL
 -2        24        25       125       124
 -1        25    9    0STEEL
 -2        25        26       126       125
 -1        26    9    0STEEL
 -2        26        27       127       126
 -1        27    9    0STEEL
 -2        27        28       128       127
 -1        28    9    0STEEL
 -2        28        29       129       128
 -1        29    9    0STEEL
 -2        29        30       130       129
 -1        30    9    0STEEL
 -2        30        31       131       130
 -1       101    9    0RUBBE
 -2       101       102       202       201
 -1       102    9    0RUBBE
 -2       102       103       203       202
 -1       103    9    0RUBBE
 -2       103       104       204       203
 -1       104    9    0RUBBE
 -2       104       105       205       204
 -1       105    9    0RUBBE
 -2       105       106       206       205
 -1       106    9    0RUBBE
 -2       106       107       207       206
 -1       107    9    0RUBBE
 -2       107       108       208       207
 -1       108    9    0RUBBE
 -2       108       109       209       208
 -1       109    9    0RUBBE
 -2       109       110       210       209
 -1       110    9    0RUBBE
 -2       110       111       211       210
 -1       111    9    0RUBBE
 -2       111       112       212       211
 -1       112    9    0RUBBE
 -2       112       113       213       212
 -1       113    9    0RUBBE
 -2       113       114       214       213
 -1       114    9    0RUBBE
 -2       114       115       215       214
 -1       115    9    0RUBBE
 -2       115       116       216       215
 -1       116    9    0RUBBE
 -2       116       117       217       216
 -1       117    9    0RUBBE
 -2       117       118       218       217
 -1       118    9    0RUBBE
 -2       118       119       219       218
 -1       119    9    0RUBBE
 -2       119       120       220       219
 -1       120    9    0RUBBE
 -2       120       121       221       220
 -1       121    9    0RUBBE
 -2       121       122       222       221
 -1       122    9    0RUBBE
 -2       122       123       223       222
 -1       123    9    0RUBBE
 -2       123       124       224       223
 -1       124    9    0RUBBE
 -2       124       125       225       224
 -1       125    9    0RUBBE
 -2       125       126       226       225
 -1       126    9    0RUBBE
 -2       126       127       227       226
 -1       127    9    0RUBBE
 -2       127       128       228       227
 -1       128    9    0RUBBE
 -2       128       129       229       228
 -1       129    9    0RUBBE
 -2       129       130       230       229
 -1       130    9    0RUBBE
 -2       130       131       231       230
 -1       201    9    0RUBBE
 -2       201       202       302       301
 -1       202    9    0RUBBE
 -2       202       203       303       302